<?xml version="1.0" encoding="UTF-8"?>

<!-- generated on 2025-11-09 04:59:14 by Eclipse SUMO GUI Version 1.24.0
<sumoConfiguration xmlns:xsi="http://www.w3.org/2001/XMLSchema-instance" xsi:noNamespaceSchemaLocation="http://sumo.dlr.de/xsd/sumoConfiguration.xsd">

    <input>
        <net-file value="lust.net.xml"/>
        <route-files value="buslines.rou.xml,DUARoutes/local.0.rou.xml,DUARoutes/local.1.rou.xml,DUARoutes/local.2.rou.xml,transit.rou.xml"/>
        <additional-files value="vtypes.add.xml,busstops.add.xml,e1detectors.add.xml,lust.poly.xml"/>
    </input>

    <output>
        <summary-output value="dua.actuated.summary.xml"/>
        <tripinfo-output value="dua.actuated.tripinfo.xml"/>
    </output>

    <time>
        <begin value="0"/>
        <step-length value="1"/>
    </time>

    <processing>
        <ignore-junction-blocker value="20"/>
        <time-to-teleport value="600"/>
        <max-depart-delay value="600"/>
    </processing>

    <routing>
        <routing-algorithm value="dijkstra"/>
        <device.rerouting.probability value="0.70"/>
        <device.rerouting.period value="300"/>
        <device.rerouting.pre-period value="300"/>
    </routing>

    <report>
        <verbose value="true"/>
        <log value="dua.actuated.log"/>
    </report>

</sumoConfiguration>
-->

<tripinfos xmlns:xsi="http://www.w3.org/2001/XMLSchema-instance" xsi:noNamespaceSchemaLocation="http://sumo.dlr.de/xsd/tripinfo_file.xsd">
    <tripinfo id="randUni834:1" depart="5.00" departLane="--32406#3_0" departPos="44.28" departSpeed="0.00" departDelay="0.00" arrival="43.00" arrivalLane="--31212_0" arrivalPos="134.87" arrivalSpeed="0.19" duration="38.00" routeLength="419.00" waitingTime="0.00" waitingCount="0" stopTime="0.00" timeLoss="8.15" rerouteNo="0" devices="tripinfo_randUni834:1" vType="passenger2b" speedFactor="1.01" vaporized=""/>
    <tripinfo id="randUni16882:1" depart="14.00" departLane="-32340#7_0" departPos="40.95" departSpeed="0.00" departDelay="0.00" arrival="126.00" arrivalLane="-32660_0" arrivalPos="128.63" arrivalSpeed="0.20" duration="112.00" routeLength="1339.99" waitingTime="0.00" waitingCount="0" stopTime="0.00" timeLoss="16.51" rerouteNo="0" devices="tripinfo_randUni16882:1 routing_randUni16882:1" vType="passenger1" speedFactor="1.01" vaporized=""/>
    <tripinfo id="randUni11317:1" depart="11.00" departLane="--31490_0" departPos="79.31" departSpeed="0.00" departDelay="0.00" arrival="144.00" arrivalLane="-31290#1_0" arrivalPos="2.17" arrivalSpeed="0.17" duration="133.00" routeLength="1697.02" waitingTime="4.00" waitingCount="1" stopTime="0.00" timeLoss="29.78" rerouteNo="0" devices="tripinfo_randUni11317:1" vType="passenger2a" speedFactor="1.16" vaporized=""/>
    <tripinfo id="NBSKMS_Nightbus_0" depart="39.00" departLane="-32278#1_0" departPos="0.00" departSpeed="0.00" departDelay="0.00" arrival="278.00" arrivalLane="-32278#5_0" arrivalPos="841.44" arrivalSpeed="13.29" duration="239.00" routeLength="1905.19" waitingTime="15.00" waitingCount="1" stopTime="60.00" timeLoss="47.19" rerouteNo="0" devices="tripinfo_NBSKMS_Nightbus_0" vType="bus" speedFactor="1.05" vaporized=""/>
    <tripinfo id="0FRtoLU.0" depart="42.00" departLane="-32426#0_0" departPos="5.10" departSpeed="13.89" departDelay="0.00" arrival="288.00" arrivalLane="-32400#5_0" arrivalPos="257.03" arrivalSpeed="36.98" duration="246.00" routeLength="6507.94" waitingTime="0.00" waitingCount="0" stopTime="0.00" timeLoss="15.46" rerouteNo="0" devices="tripinfo_0FRtoLU.0 routing_0FRtoLU.0" vType="passenger1" speedFactor="1.04" vaporized=""/>
    <tripinfo id="NBSKMS_Nightbus_1" depart="39.00" departLane="--32278#5_0" departPos="0.00" departSpeed="0.00" departDelay="0.00" arrival="326.00" arrivalLane="--32278#1_0" arrivalPos="139.07" arrivalSpeed="14.40" duration="287.00" routeLength="1910.02" waitingTime="64.00" waitingCount="3" stopTime="60.00" timeLoss="104.40" rerouteNo="0" devices="tripinfo_NBSKMS_Nightbus_1" vType="bus" speedFactor="1.12" vaporized=""/>
    <tripinfo id="randUni13606:1" depart="27.00" departLane="--32244_0" departPos="167.01" departSpeed="0.00" departDelay="0.00" arrival="334.00" arrivalLane="-31068#1_0" arrivalPos="7.58" arrivalSpeed="0.10" duration="307.00" routeLength="2570.46" waitingTime="67.00" waitingCount="3" stopTime="0.00" timeLoss="101.21" rerouteNo="0" devices="tripinfo_randUni13606:1 routing_randUni13606:1" vType="passenger4" speedFactor="0.89" vaporized=""/>
    <tripinfo id="0FRtoLU.1" depart="63.00" departLane="-32426#0_0" departPos="5.10" departSpeed="13.89" departDelay="0.00" arrival="346.00" arrivalLane="-32400#5_0" arrivalPos="257.03" arrivalSpeed="31.35" duration="283.00" routeLength="6507.94" waitingTime="0.00" waitingCount="0" stopTime="0.00" timeLoss="15.15" rerouteNo="0" devices="tripinfo_0FRtoLU.1" vType="passenger1" speedFactor="0.90" vaporized=""/>
    <tripinfo id="0FRtoLU.2" depart="119.00" departLane="-32426#0_0" departPos="6.10" departSpeed="13.89" departDelay="0.00" arrival="347.00" arrivalLane="-32400#5_0" arrivalPos="257.03" arrivalSpeed="34.14" duration="228.00" routeLength="6506.94" waitingTime="0.00" waitingCount="0" stopTime="0.00" timeLoss="21.74" rerouteNo="0" devices="tripinfo_0FRtoLU.2 routing_0FRtoLU.2" vType="passenger3" speedFactor="1.17" vaporized=""/>
    <tripinfo id="randUni18368:1" depart="0.00" departLane="-31606#0_0" departPos="177.47" departSpeed="0.00" departDelay="0.00" arrival="357.00" arrivalLane="-30496#4_1" arrivalPos="97.49" arrivalSpeed="0.25" duration="357.00" routeLength="2882.13" waitingTime="94.00" waitingCount="3" stopTime="0.00" timeLoss="137.66" rerouteNo="0" devices="tripinfo_randUni18368:1" vType="passenger2a" speedFactor="0.94" vaporized=""/>
    <tripinfo id="randUni3742:1" depart="283.00" departLane="--32124#1_0" departPos="193.49" departSpeed="0.00" departDelay="0.00" arrival="359.00" arrivalLane="--31894#2_0" arrivalPos="4.82" arrivalSpeed="0.12" duration="76.00" routeLength="287.27" waitingTime="42.00" waitingCount="1" stopTime="0.00" timeLoss="55.42" rerouteNo="0" devices="tripinfo_randUni3742:1" vType="passenger2a" speedFactor="0.94" vaporized=""/>
    <tripinfo id="0DEtoLU.0" depart="15.00" departLane="-31622#0_0" departPos="4.60" departSpeed="13.89" departDelay="0.00" arrival="369.00" arrivalLane="-32400#5_1" arrivalPos="257.03" arrivalSpeed="36.94" duration="354.00" routeLength="11354.22" waitingTime="0.00" waitingCount="0" stopTime="0.00" timeLoss="13.77" rerouteNo="0" devices="tripinfo_0DEtoLU.0 routing_0DEtoLU.0" vType="passenger2a" speedFactor="1.04" vaporized=""/>
    <tripinfo id="0LUtoDE.0" depart="45.00" departLane="-30706#0_0" departPos="5.10" departSpeed="13.89" departDelay="0.00" arrival="380.00" arrivalLane="-30668#16_1" arrivalPos="272.49" arrivalSpeed="35.59" duration="335.00" routeLength="10511.80" waitingTime="0.00" waitingCount="0" stopTime="0.00" timeLoss="12.63" rerouteNo="0" devices="tripinfo_0LUtoDE.0 routing_0LUtoDE.0" vType="passenger1" speedFactor="1.00" vaporized=""/>
    <tripinfo id="0DEtoLU.1" depart="43.00" departLane="-31622#0_0" departPos="6.10" departSpeed="13.89" departDelay="0.00" arrival="381.00" arrivalLane="-32400#5_1" arrivalPos="257.03" arrivalSpeed="39.00" duration="338.00" routeLength="11352.72" waitingTime="0.00" waitingCount="0" stopTime="0.00" timeLoss="13.21" rerouteNo="0" devices="tripinfo_0DEtoLU.1" vType="passenger3" speedFactor="1.09" vaporized=""/>
    <tripinfo id="0FRtoLU.3" depart="129.00" departLane="-32426#0_0" departPos="5.10" departSpeed="13.89" departDelay="0.00" arrival="384.00" arrivalLane="-32400#5_0" arrivalPos="257.03" arrivalSpeed="35.81" duration="255.00" routeLength="6507.94" waitingTime="0.00" waitingCount="0" stopTime="0.00" timeLoss="15.14" rerouteNo="0" devices="tripinfo_0FRtoLU.3" vType="passenger1" speedFactor="1.00" vaporized=""/>
    <tripinfo id="0BEtoFR.1" depart="145.00" departLane="-30668#0_0" departPos="4.60" departSpeed="13.89" departDelay="0.00" arrival="400.00" arrivalLane="-31366#3_2" arrivalPos="20.69" arrivalSpeed="40.62" duration="255.00" routeLength="9435.52" waitingTime="0.00" waitingCount="0" stopTime="0.00" timeLoss="11.14" rerouteNo="0" devices="tripinfo_0BEtoFR.1 routing_0BEtoFR.1" vType="passenger2a" speedFactor="1.14" vaporized=""/>
    <tripinfo id="0LUtoBE.0" depart="12.00" departLane="-30706#0_0" departPos="4.60" departSpeed="13.89" departDelay="0.00" arrival="417.00" arrivalLane="-31622#16_1" arrivalPos="305.81" arrivalSpeed="33.57" duration="405.00" routeLength="11318.23" waitingTime="0.00" waitingCount="0" stopTime="0.00" timeLoss="18.54" rerouteNo="0" devices="tripinfo_0LUtoBE.0 routing_0LUtoBE.0" vType="passenger2a" speedFactor="0.96" vaporized=""/>
    <tripinfo id="0LUtoDE.1" depart="122.00" departLane="-30706#0_0" departPos="4.60" departSpeed="13.89" departDelay="0.00" arrival="428.00" arrivalLane="-30668#16_2" arrivalPos="272.49" arrivalSpeed="38.51" duration="306.00" routeLength="10512.30" waitingTime="0.00" waitingCount="0" stopTime="0.00" timeLoss="12.14" rerouteNo="0" devices="tripinfo_0LUtoDE.1 routing_0LUtoDE.1" vType="passenger2b" speedFactor="1.10" vaporized=""/>
    <tripinfo id="randUni8397:1" depart="348.00" departLane="--30528#29_0" departPos="26.32" departSpeed="0.00" departDelay="0.00" arrival="436.00" arrivalLane="--30778#0_0" arrivalPos="59.50" arrivalSpeed="0.08" duration="88.00" routeLength="993.91" waitingTime="1.00" waitingCount="1" stopTime="0.00" timeLoss="16.97" rerouteNo="1" devices="tripinfo_randUni8397:1 routing_randUni8397:1" vType="passenger1" speedFactor="1.01" vaporized=""/>
    <tripinfo id="randUni10908:1" depart="127.00" departLane="-31302_0" departPos="1.28" departSpeed="0.00" departDelay="0.00" arrival="437.00" arrivalLane="--32160#3_0" arrivalPos="7.68" arrivalSpeed="0.07" duration="310.00" routeLength="3122.87" waitingTime="72.00" waitingCount="4" stopTime="0.00" timeLoss="118.14" rerouteNo="1" devices="tripinfo_randUni10908:1 routing_randUni10908:1" vType="passenger2b" speedFactor="1.17" vaporized=""/>
    <tripinfo id="0BEtoFR.0" depart="96.00" departLane="-30668#0_0" departPos="7.10" departSpeed="13.89" departDelay="0.00" arrival="439.00" arrivalLane="-31366#3_1" arrivalPos="20.69" arrivalSpeed="29.45" duration="343.00" routeLength="9433.02" waitingTime="0.00" waitingCount="0" stopTime="0.00" timeLoss="10.73" rerouteNo="0" devices="tripinfo_0BEtoFR.0 routing_0BEtoFR.0" vType="passenger5" speedFactor="0.88" vaporized=""/>
    <tripinfo id="0FRtoLU.4" depart="192.00" departLane="-32426#0_0" departPos="4.60" departSpeed="13.89" departDelay="0.00" arrival="450.00" arrivalLane="-32400#5_0" arrivalPos="257.03" arrivalSpeed="35.01" duration="258.00" routeLength="6508.44" waitingTime="0.00" waitingCount="0" stopTime="0.00" timeLoss="14.65" rerouteNo="0" devices="tripinfo_0FRtoLU.4" vType="passenger2a" speedFactor="0.99" vaporized=""/>
    <tripinfo id="0DEtoFR.2" depart="14.00" departLane="-31622#0_0" departPos="5.10" departSpeed="13.89" departDelay="0.00" arrival="457.00" arrivalLane="-31366#3_1" arrivalPos="20.69" arrivalSpeed="39.29" duration="443.00" routeLength="15900.65" waitingTime="0.00" waitingCount="0" stopTime="0.00" timeLoss="14.24" rerouteNo="0" devices="tripinfo_0DEtoFR.2 routing_0DEtoFR.2" vType="passenger1" speedFactor="1.09" vaporized=""/>
    <tripinfo id="0FRtoBE.0" depart="96.00" departLane="-32426#0_0" departPos="4.60" departSpeed="13.89" departDelay="0.00" arrival="464.00" arrivalLane="-31622#16_1" arrivalPos="305.81" arrivalSpeed="29.53" duration="368.00" routeLength="9592.32" waitingTime="0.00" waitingCount="0" stopTime="0.00" timeLoss="16.46" rerouteNo="0" devices="tripinfo_0FRtoBE.0 routing_0FRtoBE.0" vType="passenger2b" speedFactor="0.85" vaporized=""/>
    <tripinfo id="0DEtoFR.1" depart="8.00" departLane="-31622#0_0" departPos="4.60" departSpeed="13.89" departDelay="0.00" arrival="472.00" arrivalLane="-31366#3_1" arrivalPos="20.69" arrivalSpeed="37.24" duration="464.00" routeLength="15901.15" waitingTime="0.00" waitingCount="0" stopTime="0.00" timeLoss="16.37" rerouteNo="0" devices="tripinfo_0DEtoFR.1 routing_0DEtoFR.1" vType="passenger2b" speedFactor="1.05" vaporized=""/>
    <tripinfo id="randUni1024:1" depart="139.00" departLane="-32924#6_0" departPos="161.07" departSpeed="0.00" departDelay="0.00" arrival="495.00" arrivalLane="-32392#1_0" arrivalPos="22.50" arrivalSpeed="0.11" duration="356.00" routeLength="3318.13" waitingTime="97.00" waitingCount="3" stopTime="0.00" timeLoss="136.09" rerouteNo="0" devices="tripinfo_randUni1024:1 routing_randUni1024:1" vType="passenger2b" speedFactor="0.99" vaporized=""/>
    <tripinfo id="0LUtoDE.2" depart="205.00" departLane="-30706#0_0" departPos="4.60" departSpeed="13.89" departDelay="0.00" arrival="498.00" arrivalLane="-30668#16_2" arrivalPos="272.49" arrivalSpeed="40.49" duration="293.00" routeLength="10512.30" waitingTime="0.00" waitingCount="0" stopTime="0.00" timeLoss="13.00" rerouteNo="0" devices="tripinfo_0LUtoDE.2 routing_0LUtoDE.2" vType="passenger2b" speedFactor="1.15" vaporized=""/>
    <tripinfo id="0FRtoBE.1" depart="190.00" departLane="-32426#0_0" departPos="4.60" departSpeed="13.89" departDelay="0.00" arrival="500.00" arrivalLane="-31622#16_2" arrivalPos="305.81" arrivalSpeed="35.31" duration="310.00" routeLength="9592.32" waitingTime="0.00" waitingCount="0" stopTime="0.00" timeLoss="15.71" rerouteNo="0" devices="tripinfo_0FRtoBE.1 routing_0FRtoBE.1" vType="passenger2b" speedFactor="1.02" vaporized=""/>
    <tripinfo id="0BEtoFR.2" depart="215.00" departLane="-30668#0_0" departPos="4.60" departSpeed="13.89" departDelay="0.00" arrival="512.00" arrivalLane="-31366#3_1" arrivalPos="20.69" arrivalSpeed="34.47" duration="297.00" routeLength="9435.52" waitingTime="0.00" waitingCount="0" stopTime="0.00" timeLoss="11.73" rerouteNo="0" devices="tripinfo_0BEtoFR.2 routing_0BEtoFR.2" vType="passenger2b" speedFactor="0.98" vaporized=""/>
    <tripinfo id="randUni2416:1" depart="301.00" departLane="--32280#0_0" departPos="41.06" departSpeed="0.00" departDelay="0.00" arrival="519.00" arrivalLane="-31904#2_0" arrivalPos="24.63" arrivalSpeed="0.22" duration="218.00" routeLength="2028.81" waitingTime="43.00" waitingCount="2" stopTime="0.00" timeLoss="71.31" rerouteNo="1" devices="tripinfo_randUni2416:1 routing_randUni2416:1" vType="passenger5" speedFactor="0.98" vaporized=""/>
    <tripinfo id="0LUtoBE.1" depart="133.00" departLane="-30706#0_0" departPos="5.10" departSpeed="13.89" departDelay="0.00" arrival="523.00" arrivalLane="-31622#16_2" arrivalPos="305.81" arrivalSpeed="35.92" duration="390.00" routeLength="11317.73" waitingTime="0.00" waitingCount="0" stopTime="0.00" timeLoss="18.62" rerouteNo="0" devices="tripinfo_0LUtoBE.1 routing_0LUtoBE.1" vType="passenger1" speedFactor="1.00" vaporized=""/>
    <tripinfo id="0BEtoFR.3" depart="239.00" departLane="-30668#0_0" departPos="4.60" departSpeed="13.89" departDelay="0.00" arrival="526.00" arrivalLane="-31366#3_2" arrivalPos="20.69" arrivalSpeed="36.07" duration="287.00" routeLength="9435.52" waitingTime="0.00" waitingCount="0" stopTime="0.00" timeLoss="12.79" rerouteNo="0" devices="tripinfo_0BEtoFR.3 routing_0BEtoFR.3" vType="passenger2a" speedFactor="1.02" vaporized=""/>
    <tripinfo id="randUni20481:1" depart="13.00" departLane="--32468#2_0" departPos="31.71" departSpeed="0.00" departDelay="0.00" arrival="527.00" arrivalLane="-30528#52_0" arrivalPos="0.70" arrivalSpeed="0.09" duration="514.00" routeLength="5296.75" waitingTime="97.00" waitingCount="4" stopTime="0.00" timeLoss="146.32" rerouteNo="1" devices="tripinfo_randUni20481:1 routing_randUni20481:1" vType="passenger1" speedFactor="1.02" vaporized=""/>
    <tripinfo id="0FRtoLU.5" depart="243.00" departLane="-32426#0_0" departPos="5.10" departSpeed="13.89" departDelay="0.00" arrival="529.00" arrivalLane="-32400#5_0" arrivalPos="257.03" arrivalSpeed="31.68" duration="286.00" routeLength="6507.94" waitingTime="0.00" waitingCount="0" stopTime="0.00" timeLoss="15.66" rerouteNo="0" devices="tripinfo_0FRtoLU.5" vType="passenger1" speedFactor="0.89" vaporized=""/>
    <tripinfo id="randUni19500:1" depart="198.00" departLane="-31230#5_0" departPos="77.00" departSpeed="0.00" departDelay="0.00" arrival="532.00" arrivalLane="--30968#1_0" arrivalPos="87.47" arrivalSpeed="0.24" duration="334.00" routeLength="2589.59" waitingTime="116.00" waitingCount="5" stopTime="0.00" timeLoss="165.59" rerouteNo="0" devices="tripinfo_randUni19500:1" vType="passenger2b" speedFactor="1.10" vaporized=""/>
    <tripinfo id="0DEtoLU.2" depart="160.00" departLane="-31622#0_0" departPos="5.10" departSpeed="13.89" departDelay="0.00" arrival="542.00" arrivalLane="-32400#5_1" arrivalPos="257.03" arrivalSpeed="34.07" duration="382.00" routeLength="11353.72" waitingTime="0.00" waitingCount="0" stopTime="0.00" timeLoss="17.51" rerouteNo="0" devices="tripinfo_0DEtoLU.2 routing_0DEtoLU.2" vType="passenger1" speedFactor="0.97" vaporized=""/>
    <tripinfo id="0FRtoLU.6" depart="272.00" departLane="-32426#0_0" departPos="4.60" departSpeed="13.89" departDelay="0.00" arrival="553.00" arrivalLane="-32400#5_0" arrivalPos="257.03" arrivalSpeed="32.06" duration="281.00" routeLength="6508.44" waitingTime="0.00" waitingCount="0" stopTime="0.00" timeLoss="15.33" rerouteNo="0" devices="tripinfo_0FRtoLU.6 routing_0FRtoLU.6" vType="passenger2b" speedFactor="0.91" vaporized=""/>
    <tripinfo id="0LUtoFR.0" depart="235.00" departLane="-30706#0_0" departPos="5.10" departSpeed="13.89" departDelay="0.00" arrival="569.00" arrivalLane="-31366#3_2" arrivalPos="20.69" arrivalSpeed="36.90" duration="334.00" routeLength="8111.00" waitingTime="0.00" waitingCount="0" stopTime="0.00" timeLoss="37.48" rerouteNo="0" devices="tripinfo_0LUtoFR.0 routing_0LUtoFR.0" vType="passenger1" speedFactor="1.04" vaporized=""/>
    <tripinfo id="0LUtoFR.1" depart="238.00" departLane="-30706#0_0" departPos="4.60" departSpeed="13.89" departDelay="0.00" arrival="572.00" arrivalLane="-31366#3_2" arrivalPos="20.69" arrivalSpeed="35.63" duration="334.00" routeLength="8111.50" waitingTime="0.00" waitingCount="0" stopTime="0.00" timeLoss="31.47" rerouteNo="0" devices="tripinfo_0LUtoFR.1 routing_0LUtoFR.1" vType="passenger2a" speedFactor="1.02" vaporized=""/>
    <tripinfo id="0FRtoBE.2" depart="267.00" departLane="-32426#0_0" departPos="5.10" departSpeed="13.89" departDelay="0.00" arrival="580.00" arrivalLane="-31622#16_2" arrivalPos="305.81" arrivalSpeed="35.83" duration="313.00" routeLength="9591.82" waitingTime="0.00" waitingCount="0" stopTime="0.00" timeLoss="16.52" rerouteNo="0" devices="tripinfo_0FRtoBE.2 routing_0FRtoBE.2" vType="passenger1" speedFactor="1.01" vaporized=""/>
    <tripinfo id="0DEtoFR.0" depart="0.00" departLane="-31622#0_0" departPos="5.10" departSpeed="13.89" departDelay="0.00" arrival="581.00" arrivalLane="-31366#3_1" arrivalPos="20.69" arrivalSpeed="29.63" duration="581.00" routeLength="15900.65" waitingTime="0.00" waitingCount="0" stopTime="0.00" timeLoss="17.90" rerouteNo="0" devices="tripinfo_0DEtoFR.0 routing_0DEtoFR.0" vType="passenger1" speedFactor="0.83" vaporized=""/>
    <tripinfo id="0LUtoFR.2" depart="289.00" departLane="-30706#0_0" departPos="4.60" departSpeed="13.89" departDelay="0.00" arrival="586.00" arrivalLane="-31366#3_2" arrivalPos="20.69" arrivalSpeed="39.84" duration="297.00" routeLength="8111.50" waitingTime="0.00" waitingCount="0" stopTime="0.00" timeLoss="21.69" rerouteNo="0" devices="tripinfo_0LUtoFR.2 routing_0LUtoFR.2" vType="passenger2a" speedFactor="1.12" vaporized=""/>
    <tripinfo id="0BEtoLU.0" depart="237.00" departLane="-30668#0_0" departPos="5.10" departSpeed="13.89" departDelay="0.00" arrival="591.00" arrivalLane="-32400#5_0" arrivalPos="257.03" arrivalSpeed="36.10" duration="354.00" routeLength="10745.68" waitingTime="0.00" waitingCount="0" stopTime="0.00" timeLoss="14.14" rerouteNo="0" devices="tripinfo_0BEtoLU.0 routing_0BEtoLU.0" vType="passenger1" speedFactor="1.01" vaporized=""/>
    <tripinfo id="randUni5174:1" depart="289.00" departLane="--32388_0" departPos="16.74" departSpeed="0.00" departDelay="0.00" arrival="601.00" arrivalLane="-30398#8_0" arrivalPos="3.52" arrivalSpeed="0.25" duration="312.00" routeLength="2358.11" waitingTime="118.00" waitingCount="4" stopTime="0.00" timeLoss="161.73" rerouteNo="0" devices="tripinfo_randUni5174:1 routing_randUni5174:1" vType="passenger2a" speedFactor="1.06" vaporized=""/>
    <tripinfo id="0BEtoFR.4" depart="302.00" departLane="-30668#0_0" departPos="5.10" departSpeed="13.89" departDelay="0.00" arrival="605.00" arrivalLane="-31366#3_1" arrivalPos="20.69" arrivalSpeed="33.97" duration="303.00" routeLength="9435.02" waitingTime="0.00" waitingCount="0" stopTime="0.00" timeLoss="12.09" rerouteNo="0" devices="tripinfo_0BEtoFR.4 routing_0BEtoFR.4" vType="passenger1" speedFactor="0.96" vaporized=""/>
    <tripinfo id="0DEtoLU.3" depart="265.00" departLane="-31622#0_0" departPos="5.10" departSpeed="13.89" departDelay="0.00" arrival="612.00" arrivalLane="-32400#5_1" arrivalPos="257.03" arrivalSpeed="37.60" duration="347.00" routeLength="11353.72" waitingTime="0.00" waitingCount="0" stopTime="0.00" timeLoss="12.31" rerouteNo="0" devices="tripinfo_0DEtoLU.3 routing_0DEtoLU.3" vType="passenger1" speedFactor="1.06" vaporized=""/>
    <tripinfo id="0BEtoLU.2" depart="292.00" departLane="-30668#0_0" departPos="6.10" departSpeed="13.89" departDelay="0.00" arrival="618.00" arrivalLane="-32400#5_0" arrivalPos="257.03" arrivalSpeed="39.62" duration="326.00" routeLength="10744.68" waitingTime="0.00" waitingCount="0" stopTime="0.00" timeLoss="14.57" rerouteNo="0" devices="tripinfo_0BEtoLU.2 routing_0BEtoLU.2" vType="passenger3" speedFactor="1.10" vaporized=""/>
    <tripinfo id="randUni9228:1" depart="392.00" departLane="-31648#0_0" departPos="25.38" departSpeed="0.00" departDelay="0.00" arrival="631.00" arrivalLane="-30608#9_1" arrivalPos="32.30" arrivalSpeed="0.15" duration="239.00" routeLength="1662.79" waitingTime="77.00" waitingCount="5" stopTime="0.00" timeLoss="119.85" rerouteNo="1" devices="tripinfo_randUni9228:1 routing_randUni9228:1" vType="passenger1" speedFactor="1.00" vaporized=""/>
    <tripinfo id="0DEtoFR.4" depart="154.00" departLane="-31622#0_0" departPos="4.60" departSpeed="13.89" departDelay="0.00" arrival="632.00" arrivalLane="-31366#3_1" arrivalPos="20.69" arrivalSpeed="36.74" duration="478.00" routeLength="15901.15" waitingTime="0.00" waitingCount="0" stopTime="0.00" timeLoss="20.47" rerouteNo="0" devices="tripinfo_0DEtoFR.4 routing_0DEtoFR.4" vType="passenger2a" speedFactor="1.02" vaporized=""/>
    <tripinfo id="0FRtoLU.7" depart="379.00" departLane="-32426#0_0" departPos="7.10" departSpeed="13.89" departDelay="0.00" arrival="640.00" arrivalLane="-32400#5_0" arrivalPos="257.03" arrivalSpeed="29.38" duration="261.00" routeLength="6505.94" waitingTime="0.00" waitingCount="0" stopTime="0.00" timeLoss="10.20" rerouteNo="0" devices="tripinfo_0FRtoLU.7 routing_0FRtoLU.7" vType="passenger5" speedFactor="1.10" vaporized=""/>
    <tripinfo id="randUni4383:1" depart="479.00" departLane="--30872#10_0" departPos="92.86" departSpeed="0.00" departDelay="0.00" arrival="641.00" arrivalLane="-32716#0_0" arrivalPos="21.56" arrivalSpeed="3.58" duration="162.00" routeLength="1733.64" waitingTime="31.00" waitingCount="2" stopTime="0.00" timeLoss="58.79" rerouteNo="0" devices="tripinfo_randUni4383:1 routing_randUni4383:1" vType="passenger2b" speedFactor="1.12" vaporized=""/>
    <tripinfo id="0LUtoDE.3" depart="303.00" departLane="-30706#0_0" departPos="4.60" departSpeed="13.89" departDelay="0.00" arrival="648.00" arrivalLane="-30668#16_1" arrivalPos="272.49" arrivalSpeed="34.73" duration="345.00" routeLength="10512.30" waitingTime="0.00" waitingCount="0" stopTime="0.00" timeLoss="13.06" rerouteNo="0" devices="tripinfo_0LUtoDE.3 routing_0LUtoDE.3" vType="passenger2b" speedFactor="0.97" vaporized=""/>
    <tripinfo id="0FRtoBE.3" depart="344.00" departLane="-32426#0_0" departPos="4.60" departSpeed="13.89" departDelay="0.00" arrival="655.00" arrivalLane="-31622#16_2" arrivalPos="305.81" arrivalSpeed="35.58" duration="311.00" routeLength="9592.32" waitingTime="0.00" waitingCount="0" stopTime="0.00" timeLoss="15.31" rerouteNo="0" devices="tripinfo_0FRtoBE.3 routing_0FRtoBE.3" vType="passenger2a" speedFactor="1.01" vaporized=""/>
    <tripinfo id="0FRtoBE.4" depart="359.00" departLane="-32426#0_0" departPos="5.10" departSpeed="13.89" departDelay="0.00" arrival="657.00" arrivalLane="-31622#16_2" arrivalPos="305.81" arrivalSpeed="38.07" duration="298.00" routeLength="9591.82" waitingTime="0.00" waitingCount="0" stopTime="0.00" timeLoss="17.19" rerouteNo="0" devices="tripinfo_0FRtoBE.4" vType="passenger1" speedFactor="1.06" vaporized=""/>
    <tripinfo id="randUni7357:1" depart="102.00" departLane="-30988#3_0" departPos="124.96" departSpeed="0.00" departDelay="0.00" arrival="658.00" arrivalLane="-32190_0" arrivalPos="440.94" arrivalSpeed="0.11" duration="556.00" routeLength="5263.66" waitingTime="101.00" waitingCount="5" stopTime="0.00" timeLoss="156.95" rerouteNo="0" devices="tripinfo_randUni7357:1 routing_randUni7357:1" vType="passenger1" speedFactor="0.93" vaporized=""/>
    <tripinfo id="0DEtoFR.3" depart="98.00" departLane="-31622#0_0" departPos="5.10" departSpeed="13.89" departDelay="0.00" arrival="663.00" arrivalLane="-31366#3_1" arrivalPos="20.69" arrivalSpeed="30.26" duration="565.00" routeLength="15900.65" waitingTime="0.00" waitingCount="0" stopTime="0.00" timeLoss="17.30" rerouteNo="0" devices="tripinfo_0DEtoFR.3 routing_0DEtoFR.3" vType="passenger1" speedFactor="0.85" vaporized=""/>
    <tripinfo id="0LUtoFR.3" depart="315.00" departLane="-30706#0_0" departPos="5.10" departSpeed="13.89" departDelay="0.00" arrival="664.00" arrivalLane="-31366#3_1" arrivalPos="20.69" arrivalSpeed="32.59" duration="349.00" routeLength="8111.00" waitingTime="0.00" waitingCount="0" stopTime="0.00" timeLoss="25.42" rerouteNo="0" devices="tripinfo_0LUtoFR.3 routing_0LUtoFR.3" vType="passenger1" speedFactor="0.95" vaporized=""/>
    <tripinfo id="randUni18438:1" depart="110.00" departLane="-31146#0_0" departPos="134.29" departSpeed="0.00" departDelay="0.00" arrival="665.00" arrivalLane="-31892#0_0" arrivalPos="21.38" arrivalSpeed="1.20" duration="555.00" routeLength="6462.05" waitingTime="112.00" waitingCount="7" stopTime="0.00" timeLoss="189.81" rerouteNo="1" devices="tripinfo_randUni18438:1 routing_randUni18438:1" vType="passenger1" speedFactor="1.15" vaporized=""/>
    <tripinfo id="0DEtoBE.2" depart="183.00" departLane="-31622#0_0" departPos="4.60" departSpeed="13.89" departDelay="0.00" arrival="670.00" arrivalLane="-31622#16_2" arrivalPos="305.81" arrivalSpeed="39.50" duration="487.00" routeLength="19107.88" waitingTime="0.00" waitingCount="0" stopTime="0.00" timeLoss="13.89" rerouteNo="0" devices="tripinfo_0DEtoBE.2 routing_0DEtoBE.2" vType="passenger2a" speedFactor="1.12" vaporized=""/>
    <tripinfo id="0BEtoLU.1" depart="248.00" departLane="-30668#0_0" departPos="5.10" departSpeed="13.89" departDelay="0.00" arrival="674.00" arrivalLane="-32400#5_0" arrivalPos="257.03" arrivalSpeed="28.89" duration="426.00" routeLength="10745.68" waitingTime="0.00" waitingCount="0" stopTime="0.00" timeLoss="15.90" rerouteNo="0" devices="tripinfo_0BEtoLU.1 routing_0BEtoLU.1" vType="passenger1" speedFactor="0.83" vaporized=""/>
    <tripinfo id="0DEtoBE.1" depart="180.00" departLane="-31622#0_0" departPos="5.10" departSpeed="13.89" departDelay="0.00" arrival="682.00" arrivalLane="-31622#16_2" arrivalPos="305.81" arrivalSpeed="38.30" duration="502.00" routeLength="19107.38" waitingTime="0.00" waitingCount="0" stopTime="0.00" timeLoss="12.76" rerouteNo="0" devices="tripinfo_0DEtoBE.1" vType="passenger1" speedFactor="1.08" vaporized=""/>
    <tripinfo id="0DEtoLU.4" depart="340.00" departLane="-31622#0_0" departPos="6.10" departSpeed="13.89" departDelay="0.00" arrival="683.00" arrivalLane="-32400#5_1" arrivalPos="257.03" arrivalSpeed="37.78" duration="343.00" routeLength="11352.72" waitingTime="0.00" waitingCount="0" stopTime="0.00" timeLoss="13.48" rerouteNo="0" devices="tripinfo_0DEtoLU.4 routing_0DEtoLU.4" vType="passenger3" speedFactor="1.07" vaporized=""/>
    <tripinfo id="0BEtoFR.5" depart="441.00" departLane="-30668#0_0" departPos="6.10" departSpeed="13.89" departDelay="0.00" arrival="692.00" arrivalLane="-31366#3_2" arrivalPos="20.69" arrivalSpeed="41.68" duration="251.00" routeLength="9434.02" waitingTime="0.00" waitingCount="0" stopTime="0.00" timeLoss="11.46" rerouteNo="0" devices="tripinfo_0BEtoFR.5 routing_0BEtoFR.5" vType="passenger3" speedFactor="1.16" vaporized=""/>
    <tripinfo id="0FRtoLU.8" depart="405.00" departLane="-32426#0_0" departPos="5.60" departSpeed="13.89" departDelay="0.00" arrival="694.00" arrivalLane="-32400#5_0" arrivalPos="257.03" arrivalSpeed="28.97" duration="289.00" routeLength="6507.44" waitingTime="0.00" waitingCount="0" stopTime="0.00" timeLoss="14.55" rerouteNo="0" devices="tripinfo_0FRtoLU.8" vType="passenger4" speedFactor="0.92" vaporized=""/>
    <tripinfo id="0FRtoLU.9" depart="470.00" departLane="-32426#0_0" departPos="5.10" departSpeed="13.89" departDelay="0.00" arrival="696.00" arrivalLane="-32400#5_0" arrivalPos="257.03" arrivalSpeed="37.58" duration="226.00" routeLength="6507.94" waitingTime="0.00" waitingCount="0" stopTime="0.00" timeLoss="15.01" rerouteNo="0" devices="tripinfo_0FRtoLU.9 routing_0FRtoLU.9" vType="passenger1" speedFactor="1.14" vaporized=""/>
    <tripinfo id="randUni5299:1" depart="37.00" departLane="--32326#1_0" departPos="9.79" departSpeed="0.00" departDelay="0.00" arrival="697.00" arrivalLane="-32902#1_0" arrivalPos="10.23" arrivalSpeed="0.07" duration="660.00" routeLength="5219.49" waitingTime="151.00" waitingCount="6" stopTime="0.00" timeLoss="211.79" rerouteNo="1" devices="tripinfo_randUni5299:1 routing_randUni5299:1" vType="passenger1" speedFactor="0.83" vaporized=""/>