<?xml version="1.0" encoding="UTF-8"?>

<!-- generated on 2026-02-05 02:24:05 by Eclipse SUMO GUI Version 1.24.0
<sumoConfiguration xmlns:xsi="http://www.w3.org/2001/XMLSchema-instance" xsi:noNamespaceSchemaLocation="http://sumo.dlr.de/xsd/sumoConfiguration.xsd">

    <input>
        <net-file value="scenario\lust.net.xml"/>
        <route-files value="scenario\buslines.rou.xml,scenario\DUERoutes/local.actuated.0.rou.xml,scenario\DUERoutes/local.actuated.1.rou.xml,scenario\DUERoutes/local.actuated.2.rou.xml,scenario\transit.rou.xml"/>
        <additional-files value="scenario\vtypes.add.xml,scenario\busstops.add.xml,scenario\e1detectors.add.xml,scenario\lust.poly.xml"/>
    </input>

    <output>
        <summary-output value="scenario\due.actuated.summary.xml"/>
        <tripinfo-output value="scenario\due.actuated.tripinfo.xml"/>
    </output>

    <time>
        <begin value="0"/>
        <step-length value="1.0"/>
    </time>

    <processing>
        <ignore-junction-blocker value="20"/>
        <time-to-teleport value="600"/>
        <max-depart-delay value="600"/>
    </processing>

    <routing>
        <routing-algorithm value="dijkstra"/>
    </routing>

    <report>
        <verbose value="true"/>
        <log value="scenario\due.actuated.log"/>
    </report>

    <traci_server>
        <remote-port value="8813"/>
    </traci_server>

</sumoConfiguration>
-->

<tripinfos xmlns:xsi="http://www.w3.org/2001/XMLSchema-instance" xsi:noNamespaceSchemaLocation="http://sumo.dlr.de/xsd/tripinfo_file.xsd">
    <tripinfo id="randUni834:1" depart="5.00" departLane="--32406#3_0" departPos="13.88" departSpeed="0.00" departDelay="0.00" arrival="44.00" arrivalLane="--31212_0" arrivalPos="134.87" arrivalSpeed="0.59" duration="39.00" routeLength="449.40" waitingTime="0.00" waitingCount="0" stopTime="0.00" timeLoss="6.99" rerouteNo="0" devices="tripinfo_randUni834:1" vType="passenger2b" speedFactor="1.01" vaporized=""/>
    <tripinfo id="randUni16882:1.1" depart="14.00" departLane="-32340#7_0" departPos="232.76" departSpeed="0.00" departDelay="0.00" arrival="101.00" arrivalLane="-32660_0" arrivalPos="10.14" arrivalSpeed="0.19" duration="87.00" routeLength="1029.69" waitingTime="0.00" waitingCount="0" stopTime="0.00" timeLoss="13.41" rerouteNo="0" devices="tripinfo_randUni16882:1.1" vType="passenger1" speedFactor="1.01" vaporized=""/>
    <tripinfo id="randUni16882:1.3" depart="14.00" departLane="-32340#7_0" departPos="170.71" departSpeed="0.00" departDelay="0.00" arrival="108.00" arrivalLane="-32660_0" arrivalPos="54.17" arrivalSpeed="0.68" duration="94.00" routeLength="1135.77" waitingTime="0.00" waitingCount="0" stopTime="0.00" timeLoss="14.96" rerouteNo="0" devices="tripinfo_randUni16882:1.3" vType="passenger1" speedFactor="1.03" vaporized=""/>
    <tripinfo id="randUni16882:1.4" depart="14.00" departLane="-32340#7_0" departPos="110.89" departSpeed="0.00" departDelay="0.00" arrival="119.00" arrivalLane="-32660_0" arrivalPos="115.02" arrivalSpeed="0.16" duration="105.00" routeLength="1256.44" waitingTime="0.00" waitingCount="0" stopTime="0.00" timeLoss="14.37" rerouteNo="0" devices="tripinfo_randUni16882:1.4" vType="passenger1" speedFactor="1.00" vaporized=""/>
    <tripinfo id="randUni16882:1" depart="14.00" departLane="-32340#7_0" departPos="39.52" departSpeed="0.00" departDelay="0.00" arrival="121.00" arrivalLane="-32660_0" arrivalPos="44.50" arrivalSpeed="0.94" duration="107.00" routeLength="1257.29" waitingTime="0.00" waitingCount="0" stopTime="0.00" timeLoss="14.82" rerouteNo="0" devices="tripinfo_randUni16882:1" vType="passenger1" speedFactor="0.98" vaporized=""/>
    <tripinfo id="randUni16882:1.2" depart="14.00" departLane="-32340#7_0" departPos="88.68" departSpeed="0.00" departDelay="0.00" arrival="125.00" arrivalLane="-32660_0" arrivalPos="147.32" arrivalSpeed="1.57" duration="111.00" routeLength="1310.95" waitingTime="0.00" waitingCount="0" stopTime="0.00" timeLoss="24.17" rerouteNo="0" devices="tripinfo_randUni16882:1.2" vType="passenger1" speedFactor="1.09" vaporized=""/>
    <tripinfo id="randUni11317:1.2" depart="11.00" departLane="--31490_0" departPos="128.51" departSpeed="0.00" departDelay="0.00" arrival="176.00" arrivalLane="-31290#1_0" arrivalPos="12.30" arrivalSpeed="0.76" duration="165.00" routeLength="1653.49" waitingTime="20.00" waitingCount="1" stopTime="0.00" timeLoss="51.10" rerouteNo="0" devices="tripinfo_randUni11317:1.2" vType="passenger2a" speedFactor="1.02" vaporized=""/>
    <tripinfo id="randUni11317:1" depart="11.00" departLane="--31490_0" departPos="103.92" departSpeed="0.00" departDelay="0.00" arrival="177.00" arrivalLane="-31290#1_0" arrivalPos="2.17" arrivalSpeed="0.10" duration="166.00" routeLength="1667.94" waitingTime="13.00" waitingCount="1" stopTime="0.00" timeLoss="37.59" rerouteNo="0" devices="tripinfo_randUni11317:1" vType="passenger2a" speedFactor="0.91" vaporized=""/>
    <tripinfo id="randUni11317:1.4" depart="11.00" departLane="--31490_0" departPos="69.94" departSpeed="0.00" departDelay="0.00" arrival="183.00" arrivalLane="-31290#1_0" arrivalPos="37.03" arrivalSpeed="0.22" duration="172.00" routeLength="1736.79" waitingTime="11.00" waitingCount="1" stopTime="0.00" timeLoss="46.20" rerouteNo="0" devices="tripinfo_randUni11317:1.4" vType="passenger2a" speedFactor="0.97" vaporized=""/>
    <tripinfo id="randUni11317:1.3" depart="11.00" departLane="--31490_0" departPos="54.14" departSpeed="0.00" departDelay="0.00" arrival="184.00" arrivalLane="-31290#1_0" arrivalPos="27.10" arrivalSpeed="0.46" duration="173.00" routeLength="1742.66" waitingTime="11.00" waitingCount="1" stopTime="0.00" timeLoss="52.83" rerouteNo="0" devices="tripinfo_randUni11317:1.3" vType="passenger2a" speedFactor="1.02" vaporized=""/>
    <tripinfo id="randUni11317:1.1" depart="11.00" departLane="--31490_0" departPos="20.57" departSpeed="0.00" departDelay="0.00" arrival="260.00" arrivalLane="-31290#1_0" arrivalPos="36.94" arrivalSpeed="0.18" duration="249.00" routeLength="1786.07" waitingTime="88.00" waitingCount="3" stopTime="0.00" timeLoss="127.91" rerouteNo="0" devices="tripinfo_randUni11317:1.1" vType="passenger2a" speedFactor="1.04" vaporized=""/>
    <tripinfo id="0FRtoLU.0" depart="42.00" departLane="-32426#0_0" departPos="5.10" departSpeed="13.89" departDelay="0.00" arrival="277.00" arrivalLane="-32400#5_0" arrivalPos="257.03" arrivalSpeed="38.36" duration="235.00" routeLength="6507.94" waitingTime="0.00" waitingCount="0" stopTime="0.00" timeLoss="15.69" rerouteNo="0" devices="tripinfo_0FRtoLU.0" vType="passenger1" speedFactor="1.10" vaporized=""/>
    <tripinfo id="NBSKMS_Nightbus_0" depart="39.00" departLane="-32278#1_0" departPos="0.00" departSpeed="0.00" departDelay="0.00" arrival="280.00" arrivalLane="-32278#5_0" arrivalPos="841.44" arrivalSpeed="13.82" duration="241.00" routeLength="1905.19" waitingTime="14.00" waitingCount="1" stopTime="60.00" timeLoss="44.18" rerouteNo="0" devices="tripinfo_NBSKMS_Nightbus_0" vType="bus" speedFactor="1.01" vaporized=""/>
    <tripinfo id="0FRtoLU.0.1" depart="44.00" departLane="-32426#0_0" departPos="5.10" departSpeed="13.89" departDelay="2.00" arrival="284.00" arrivalLane="-32400#5_0" arrivalPos="257.03" arrivalSpeed="37.89" duration="240.00" routeLength="6507.94" waitingTime="0.00" waitingCount="0" stopTime="0.00" timeLoss="14.41" rerouteNo="0" devices="tripinfo_0FRtoLU.0.1" vType="passenger1" speedFactor="1.07" vaporized=""/>
    <tripinfo id="0FRtoLU.0.2" depart="45.00" departLane="-32426#0_0" departPos="5.10" departSpeed="13.89" departDelay="3.00" arrival="302.00" arrivalLane="-32400#5_0" arrivalPos="257.03" arrivalSpeed="34.97" duration="257.00" routeLength="6507.94" waitingTime="0.00" waitingCount="0" stopTime="0.00" timeLoss="16.02" rerouteNo="0" devices="tripinfo_0FRtoLU.0.2" vType="passenger1" speedFactor="1.00" vaporized=""/>
    <tripinfo id="0FRtoLU.0.4" depart="48.00" departLane="-32426#0_0" departPos="5.10" departSpeed="13.89" departDelay="6.00" arrival="304.00" arrivalLane="-32400#5_0" arrivalPos="257.03" arrivalSpeed="36.89" duration="256.00" routeLength="6507.94" waitingTime="0.00" waitingCount="0" stopTime="0.00" timeLoss="21.98" rerouteNo="0" devices="tripinfo_0FRtoLU.0.4" vType="passenger1" speedFactor="1.03" vaporized=""/>
    <tripinfo id="NBSKMS_Nightbus_1.1" depart="43.00" departLane="--32278#5_0" departPos="0.00" departSpeed="0.00" departDelay="4.00" arrival="327.00" arrivalLane="--32278#1_0" arrivalPos="139.07" arrivalSpeed="15.13" duration="284.00" routeLength="1910.02" waitingTime="59.00" waitingCount="3" stopTime="60.00" timeLoss="99.06" rerouteNo="0" devices="tripinfo_NBSKMS_Nightbus_1.1" vType="bus" speedFactor="1.10" vaporized=""/>
    <tripinfo id="randUni13606:1.4" depart="27.00" departLane="--32244_0" departPos="133.90" departSpeed="0.00" departDelay="0.00" arrival="339.00" arrivalLane="-31068#1_2" arrivalPos="60.15" arrivalSpeed="0.71" duration="312.00" routeLength="2861.83" waitingTime="34.00" waitingCount="4" stopTime="0.00" timeLoss="84.44" rerouteNo="0" devices="tripinfo_randUni13606:1.4" vType="passenger4" speedFactor="0.89" vaporized=""/>
    <tripinfo id="randUni13606:1.2" depart="27.00" departLane="--32244_0" departPos="200.18" departSpeed="0.00" departDelay="0.00" arrival="343.00" arrivalLane="-31068#1_2" arrivalPos="100.77" arrivalSpeed="0.28" duration="316.00" routeLength="2836.17" waitingTime="59.00" waitingCount="4" stopTime="0.00" timeLoss="120.05" rerouteNo="0" devices="tripinfo_randUni13606:1.2" vType="passenger4" speedFactor="1.02" vaporized=""/>
    <tripinfo id="randUni13606:1.3" depart="27.00" departLane="--32244_0" departPos="230.33" departSpeed="0.00" departDelay="0.00" arrival="343.00" arrivalLane="-31068#1_2" arrivalPos="138.30" arrivalSpeed="0.08" duration="316.00" routeLength="2843.56" waitingTime="70.00" waitingCount="5" stopTime="0.00" timeLoss="119.35" rerouteNo="0" devices="tripinfo_randUni13606:1.3" vType="passenger4" speedFactor="1.02" vaporized=""/>
    <tripinfo id="randUni13606:1.1" depart="27.00" departLane="--32244_0" departPos="156.30" departSpeed="0.00" departDelay="0.00" arrival="347.00" arrivalLane="-31068#1_1" arrivalPos="225.54" arrivalSpeed="0.63" duration="320.00" routeLength="3004.82" waitingTime="51.00" waitingCount="5" stopTime="0.00" timeLoss="111.71" rerouteNo="0" devices="tripinfo_randUni13606:1.1" vType="passenger4" speedFactor="1.01" vaporized=""/>
    <tripinfo id="randUni13606:1" depart="27.00" departLane="--32244_0" departPos="208.82" departSpeed="0.00" departDelay="0.00" arrival="349.00" arrivalLane="-31068#1_2" arrivalPos="209.45" arrivalSpeed="0.12" duration="322.00" routeLength="2936.21" waitingTime="70.00" waitingCount="4" stopTime="0.00" timeLoss="125.18" rerouteNo="0" devices="tripinfo_randUni13606:1" vType="passenger4" speedFactor="1.04" vaporized=""/>
    <tripinfo id="0FRtoLU.0.3" depart="47.00" departLane="-32426#0_0" departPos="5.10" departSpeed="13.89" departDelay="5.00" arrival="350.00" arrivalLane="-32400#5_0" arrivalPos="257.03" arrivalSpeed="29.99" duration="303.00" routeLength="6507.94" waitingTime="0.00" waitingCount="0" stopTime="0.00" timeLoss="16.60" rerouteNo="0" devices="tripinfo_0FRtoLU.0.3" vType="passenger1" speedFactor="0.84" vaporized=""/>
    <tripinfo id="0FRtoLU.1" depart="63.00" departLane="-32426#0_0" departPos="5.10" departSpeed="13.89" departDelay="0.00" arrival="351.00" arrivalLane="-32400#5_0" arrivalPos="257.03" arrivalSpeed="33.64" duration="288.00" routeLength="6507.94" waitingTime="0.00" waitingCount="0" stopTime="0.00" timeLoss="40.48" rerouteNo="0" devices="tripinfo_0FRtoLU.1" vType="passenger1" speedFactor="0.97" vaporized=""/>
    <tripinfo id="0FRtoLU.1.1" depart="64.00" departLane="-32426#0_0" departPos="5.10" departSpeed="13.89" departDelay="1.00" arrival="353.00" arrivalLane="-32400#5_0" arrivalPos="257.03" arrivalSpeed="33.66" duration="289.00" routeLength="6507.94" waitingTime="0.00" waitingCount="0" stopTime="0.00" timeLoss="38.33" rerouteNo="0" devices="tripinfo_0FRtoLU.1.1" vType="passenger1" speedFactor="0.96" vaporized=""/>
    <tripinfo id="0LUtoDE.0.1" depart="46.00" departLane="-30706#0_0" departPos="5.10" departSpeed="13.89" departDelay="1.00" arrival="354.00" arrivalLane="-30668#16_2" arrivalPos="272.49" arrivalSpeed="39.05" duration="308.00" routeLength="10511.80" waitingTime="0.00" waitingCount="0" stopTime="0.00" timeLoss="17.71" rerouteNo="0" devices="tripinfo_0LUtoDE.0.1" vType="passenger1" speedFactor="1.11" vaporized=""/>
    <tripinfo id="0FRtoLU.1.2" depart="66.00" departLane="-32426#0_0" departPos="5.10" departSpeed="13.89" departDelay="3.00" arrival="354.00" arrivalLane="-32400#5_0" arrivalPos="257.03" arrivalSpeed="35.41" duration="288.00" routeLength="6507.94" waitingTime="0.00" waitingCount="0" stopTime="0.00" timeLoss="43.02" rerouteNo="0" devices="tripinfo_0FRtoLU.1.2" vType="passenger1" speedFactor="0.98" vaporized=""/>
    <tripinfo id="NBSKMS_Nightbus_1" depart="39.00" departLane="--32278#5_0" departPos="0.00" departSpeed="0.00" departDelay="0.00" arrival="355.00" arrivalLane="--32278#1_0" arrivalPos="139.07" arrivalSpeed="15.48" duration="316.00" routeLength="1910.02" waitingTime="91.00" waitingCount="4" stopTime="60.00" timeLoss="138.97" rerouteNo="0" devices="tripinfo_NBSKMS_Nightbus_1" vType="bus" speedFactor="1.18" vaporized=""/>
    <tripinfo id="0FRtoLU.1.3" depart="68.00" departLane="-32426#0_0" departPos="5.10" departSpeed="13.89" departDelay="5.00" arrival="355.00" arrivalLane="-32400#5_0" arrivalPos="257.03" arrivalSpeed="34.82" duration="287.00" routeLength="6507.94" waitingTime="0.00" waitingCount="0" stopTime="0.00" timeLoss="69.24" rerouteNo="0" devices="tripinfo_0FRtoLU.1.3" vType="passenger1" speedFactor="1.10" vaporized=""/>
    <tripinfo id="0FRtoLU.1.4" depart="69.00" departLane="-32426#0_0" departPos="5.10" departSpeed="13.89" departDelay="6.00" arrival="357.00" arrivalLane="-32400#5_0" arrivalPos="257.03" arrivalSpeed="36.37" duration="288.00" routeLength="6507.94" waitingTime="0.00" waitingCount="0" stopTime="0.00" timeLoss="55.25" rerouteNo="0" devices="tripinfo_0FRtoLU.1.4" vType="passenger1" speedFactor="1.04" vaporized=""/>
    <tripinfo id="NBSKMS_Nightbus_0.1" depart="43.00" departLane="-32278#1_0" departPos="0.00" departSpeed="0.00" departDelay="4.00" arrival="358.00" arrivalLane="-32278#5_0" arrivalPos="841.44" arrivalSpeed="15.86" duration="315.00" routeLength="1905.19" waitingTime="94.00" waitingCount="5" stopTime="60.00" timeLoss="137.19" rerouteNo="0" devices="tripinfo_NBSKMS_Nightbus_0.1" vType="bus" speedFactor="1.17" vaporized=""/>
    <tripinfo id="0FRtoLU.2" depart="119.00" departLane="-32426#0_0" departPos="6.10" departSpeed="13.89" departDelay="0.00" arrival="358.00" arrivalLane="-32400#5_0" arrivalPos="257.03" arrivalSpeed="35.50" duration="239.00" routeLength="6506.94" waitingTime="0.00" waitingCount="0" stopTime="0.00" timeLoss="22.15" rerouteNo="0" devices="tripinfo_0FRtoLU.2" vType="passenger3" speedFactor="1.11" vaporized=""/>
    <tripinfo id="0FRtoLU.2.1" depart="121.00" departLane="-32426#0_0" departPos="6.10" departSpeed="13.89" departDelay="2.00" arrival="359.00" arrivalLane="-32400#5_0" arrivalPos="257.03" arrivalSpeed="34.59" duration="238.00" routeLength="6506.94" waitingTime="0.00" waitingCount="0" stopTime="0.00" timeLoss="17.52" rerouteNo="0" devices="tripinfo_0FRtoLU.2.1" vType="passenger3" speedFactor="1.09" vaporized=""/>
    <tripinfo id="randUni3742:1.4" depart="283.00" departLane="--32124#1_0" departPos="224.25" departSpeed="0.00" departDelay="0.00" arrival="359.00" arrivalLane="--31894#2_0" arrivalPos="6.59" arrivalSpeed="0.10" duration="76.00" routeLength="258.27" waitingTime="46.00" waitingCount="1" stopTime="0.00" timeLoss="61.09" rerouteNo="0" devices="tripinfo_randUni3742:1.4" vType="passenger2a" speedFactor="1.16" vaporized=""/>
    <tripinfo id="randUni3742:1" depart="283.00" departLane="--32124#1_0" departPos="169.50" departSpeed="0.00" departDelay="0.00" arrival="363.00" arrivalLane="--31894#2_0" arrivalPos="13.26" arrivalSpeed="0.35" duration="80.00" routeLength="319.70" waitingTime="41.00" waitingCount="1" stopTime="0.00" timeLoss="58.58" rerouteNo="0" devices="tripinfo_randUni3742:1" vType="passenger2a" speedFactor="1.01" vaporized=""/>
    <tripinfo id="0LUtoDE.0.2" depart="48.00" departLane="-30706#0_0" departPos="5.10" departSpeed="13.89" departDelay="3.00" arrival="364.00" arrivalLane="-30668#16_1" arrivalPos="272.49" arrivalSpeed="37.55" duration="316.00" routeLength="10511.80" waitingTime="0.00" waitingCount="0" stopTime="0.00" timeLoss="14.86" rerouteNo="0" devices="tripinfo_0LUtoDE.0.2" vType="passenger1" speedFactor="1.07" vaporized=""/>
    <tripinfo id="randUni3742:1.3" depart="283.00" departLane="--32124#1_0" departPos="81.67" departSpeed="0.00" departDelay="0.00" arrival="366.00" arrivalLane="--31894#2_0" arrivalPos="7.78" arrivalSpeed="0.26" duration="83.00" routeLength="402.05" waitingTime="33.00" waitingCount="1" stopTime="0.00" timeLoss="52.02" rerouteNo="0" devices="tripinfo_randUni3742:1.3" vType="passenger2a" speedFactor="0.89" vaporized=""/>
    <tripinfo id="randUni3742:1.1" depart="283.00" departLane="--32124#1_0" departPos="48.18" departSpeed="0.00" departDelay="0.00" arrival="367.00" arrivalLane="--31894#2_0" arrivalPos="0.44" arrivalSpeed="0.30" duration="84.00" routeLength="428.20" waitingTime="33.00" waitingCount="1" stopTime="0.00" timeLoss="52.53" rerouteNo="0" devices="tripinfo_randUni3742:1.1" vType="passenger2a" speedFactor="0.93" vaporized=""/>
    <tripinfo id="0LUtoDE.0" depart="45.00" departLane="-30706#0_0" departPos="5.10" departSpeed="13.89" departDelay="0.00" arrival="369.00" arrivalLane="-30668#16_2" arrivalPos="272.49" arrivalSpeed="37.29" duration="324.00" routeLength="10511.80" waitingTime="0.00" waitingCount="0" stopTime="0.00" timeLoss="12.55" rerouteNo="0" devices="tripinfo_0LUtoDE.0" vType="passenger1" speedFactor="1.03" vaporized=""/>
    <tripinfo id="randUni3742:1.2" depart="283.00" departLane="--32124#1_0" departPos="18.38" departSpeed="0.00" departDelay="0.00" arrival="372.00" arrivalLane="--31894#2_0" arrivalPos="9.58" arrivalSpeed="0.45" duration="89.00" routeLength="467.14" waitingTime="35.00" waitingCount="2" stopTime="0.00" timeLoss="61.79" rerouteNo="0" devices="tripinfo_randUni3742:1.2" vType="passenger2a" speedFactor="1.18" vaporized=""/>
    <tripinfo id="0LUtoDE.0.3" depart="49.00" departLane="-30706#0_0" departPos="5.10" departSpeed="13.89" departDelay="4.00" arrival="378.00" arrivalLane="-30668#16_1" arrivalPos="272.49" arrivalSpeed="36.81" duration="329.00" routeLength="10511.80" waitingTime="0.00" waitingCount="0" stopTime="0.00" timeLoss="14.19" rerouteNo="0" devices="tripinfo_0LUtoDE.0.3" vType="passenger1" speedFactor="1.02" vaporized=""/>
    <tripinfo id="0FRtoLU.2.2" depart="123.00" departLane="-32426#0_0" departPos="6.10" departSpeed="13.89" departDelay="4.00" arrival="379.00" arrivalLane="-32400#5_0" arrivalPos="257.03" arrivalSpeed="34.86" duration="256.00" routeLength="6506.94" waitingTime="0.00" waitingCount="0" stopTime="0.00" timeLoss="14.40" rerouteNo="0" devices="tripinfo_0FRtoLU.2.2" vType="passenger3" speedFactor="0.99" vaporized=""/>
    <tripinfo id="0LUtoBE.0.1" depart="13.00" departLane="-30706#0_0" departPos="4.60" departSpeed="13.89" departDelay="1.00" arrival="381.00" arrivalLane="-31622#16_2" arrivalPos="305.81" arrivalSpeed="38.98" duration="368.00" routeLength="11318.23" waitingTime="0.00" waitingCount="0" stopTime="0.00" timeLoss="26.22" rerouteNo="0" devices="tripinfo_0LUtoBE.0.1" vType="passenger2a" speedFactor="1.08" vaporized=""/>
    <tripinfo id="0FRtoLU.2.3" depart="124.00" departLane="-32426#0_0" departPos="6.10" departSpeed="13.89" departDelay="5.00" arrival="381.00" arrivalLane="-32400#5_0" arrivalPos="257.03" arrivalSpeed="36.29" duration="257.00" routeLength="6506.94" waitingTime="0.00" waitingCount="0" stopTime="0.00" timeLoss="25.36" rerouteNo="0" devices="tripinfo_0FRtoLU.2.3" vType="passenger3" speedFactor="1.04" vaporized=""/>
    <tripinfo id="0LUtoBE.0.3" depart="16.00" departLane="-30706#0_0" departPos="4.60" departSpeed="13.89" departDelay="4.00" arrival="382.00" arrivalLane="-31622#16_2" arrivalPos="305.81" arrivalSpeed="38.45" duration="366.00" routeLength="11318.23" waitingTime="0.00" waitingCount="0" stopTime="0.00" timeLoss="29.69" rerouteNo="0" devices="tripinfo_0LUtoBE.0.3" vType="passenger2a" speedFactor="1.10" vaporized=""/>
    <tripinfo id="0FRtoLU.2.4" depart="126.00" departLane="-32426#0_0" departPos="6.10" departSpeed="13.89" departDelay="7.00" arrival="382.00" arrivalLane="-32400#5_0" arrivalPos="257.03" arrivalSpeed="40.93" duration="256.00" routeLength="6506.94" waitingTime="0.00" waitingCount="0" stopTime="0.00" timeLoss="44.84" rerouteNo="0" devices="tripinfo_0FRtoLU.2.4" vType="passenger3" speedFactor="1.14" vaporized=""/>
    <tripinfo id="NBSKMS_Nightbus_1.3" depart="51.00" departLane="--32278#5_0" departPos="0.00" departSpeed="0.00" departDelay="12.00" arrival="384.00" arrivalLane="--32278#1_0" arrivalPos="139.07" arrivalSpeed="13.31" duration="333.00" routeLength="1910.02" waitingTime="75.00" waitingCount="7" stopTime="60.00" timeLoss="139.06" rerouteNo="0" devices="tripinfo_NBSKMS_Nightbus_1.3" vType="bus" speedFactor="1.03" vaporized=""/>
    <tripinfo id="0LUtoDE.0.4" depart="51.00" departLane="-30706#0_0" departPos="5.10" departSpeed="13.89" departDelay="6.00" arrival="385.00" arrivalLane="-30668#16_1" arrivalPos="272.49" arrivalSpeed="35.65" duration="334.00" routeLength="10511.80" waitingTime="0.00" waitingCount="0" stopTime="0.00" timeLoss="13.37" rerouteNo="0" devices="tripinfo_0LUtoDE.0.4" vType="passenger1" speedFactor="1.00" vaporized=""/>
    <tripinfo id="0LUtoBE.0.2" depart="15.00" departLane="-30706#0_0" departPos="4.60" departSpeed="13.89" departDelay="3.00" arrival="386.00" arrivalLane="-31622#16_2" arrivalPos="305.81" arrivalSpeed="38.34" duration="371.00" routeLength="11318.23" waitingTime="0.00" waitingCount="0" stopTime="0.00" timeLoss="23.62" rerouteNo="0" devices="tripinfo_0LUtoBE.0.2" vType="passenger2a" speedFactor="1.06" vaporized=""/>
    <tripinfo id="0LUtoBE.0" depart="12.00" departLane="-30706#0_0" departPos="4.60" departSpeed="13.89" departDelay="0.00" arrival="388.00" arrivalLane="-31622#16_2" arrivalPos="305.81" arrivalSpeed="36.01" duration="376.00" routeLength="11318.23" waitingTime="0.00" waitingCount="0" stopTime="0.00" timeLoss="17.22" rerouteNo="0" devices="tripinfo_0LUtoBE.0" vType="passenger2a" speedFactor="1.03" vaporized=""/>
    <tripinfo id="NBSKMS_Nightbus_0.3" depart="51.00" departLane="-32278#1_0" departPos="0.00" departSpeed="0.00" departDelay="12.00" arrival="389.00" arrivalLane="-32278#5_0" arrivalPos="841.44" arrivalSpeed="13.01" duration="338.00" routeLength="1905.19" waitingTime="92.00" waitingCount="6" stopTime="60.00" timeLoss="142.96" rerouteNo="0" devices="tripinfo_NBSKMS_Nightbus_0.3" vType="bus" speedFactor="1.02" vaporized=""/>
    <tripinfo id="0FRtoBE.0" depart="96.00" departLane="-32426#0_0" departPos="4.60" departSpeed="13.89" departDelay="0.00" arrival="391.00" arrivalLane="-31622#16_2" arrivalPos="305.81" arrivalSpeed="37.71" duration="295.00" routeLength="9592.32" waitingTime="0.00" waitingCount="0" stopTime="0.00" timeLoss="15.64" rerouteNo="0" devices="tripinfo_0FRtoBE.0" vType="passenger2b" speedFactor="1.07" vaporized=""/>
    <tripinfo id="0FRtoLU.3" depart="129.00" departLane="-32426#0_0" departPos="5.10" departSpeed="13.89" departDelay="0.00" arrival="393.00" arrivalLane="-32400#5_0" arrivalPos="257.03" arrivalSpeed="33.98" duration="264.00" routeLength="6507.94" waitingTime="0.00" waitingCount="0" stopTime="0.00" timeLoss="15.37" rerouteNo="0" devices="tripinfo_0FRtoLU.3" vType="passenger1" speedFactor="0.97" vaporized=""/>
    <tripinfo id="0FRtoLU.3.1" depart="131.00" departLane="-32426#0_0" departPos="5.10" departSpeed="13.89" departDelay="2.00" arrival="394.00" arrivalLane="-32400#5_0" arrivalPos="257.03" arrivalSpeed="34.78" duration="263.00" routeLength="6507.94" waitingTime="0.00" waitingCount="0" stopTime="0.00" timeLoss="19.96" rerouteNo="0" devices="tripinfo_0FRtoLU.3.1" vType="passenger1" speedFactor="0.99" vaporized=""/>
    <tripinfo id="0FRtoLU.3.2" depart="132.00" departLane="-32426#0_0" departPos="5.10" departSpeed="13.89" departDelay="3.00" arrival="395.00" arrivalLane="-32400#5_0" arrivalPos="257.03" arrivalSpeed="35.88" duration="263.00" routeLength="6507.94" waitingTime="0.00" waitingCount="0" stopTime="0.00" timeLoss="28.21" rerouteNo="0" devices="tripinfo_0FRtoLU.3.2" vType="passenger1" speedFactor="1.02" vaporized=""/>
    <tripinfo id="0FRtoBE.0.1" depart="97.00" departLane="-32426#0_0" departPos="4.60" departSpeed="13.89" departDelay="1.00" arrival="397.00" arrivalLane="-31622#16_2" arrivalPos="305.81" arrivalSpeed="37.73" duration="300.00" routeLength="9592.32" waitingTime="0.00" waitingCount="0" stopTime="0.00" timeLoss="19.60" rerouteNo="0" devices="tripinfo_0FRtoBE.0.1" vType="passenger2b" speedFactor="1.07" vaporized=""/>
    <tripinfo id="0FRtoLU.3.3" depart="134.00" departLane="-32426#0_0" departPos="5.10" departSpeed="13.89" departDelay="5.00" arrival="397.00" arrivalLane="-32400#5_0" arrivalPos="257.03" arrivalSpeed="36.49" duration="263.00" routeLength="6507.94" waitingTime="0.00" waitingCount="0" stopTime="0.00" timeLoss="24.50" rerouteNo="0" devices="tripinfo_0FRtoLU.3.3" vType="passenger1" speedFactor="1.01" vaporized=""/>
    <tripinfo id="0FRtoLU.3.4" depart="135.00" departLane="-32426#0_0" departPos="5.10" departSpeed="13.89" departDelay="6.00" arrival="400.00" arrivalLane="-32400#5_0" arrivalPos="257.03" arrivalSpeed="34.25" duration="265.00" routeLength="6507.94" waitingTime="0.00" waitingCount="0" stopTime="0.00" timeLoss="16.80" rerouteNo="0" devices="tripinfo_0FRtoLU.3.4" vType="passenger1" speedFactor="0.97" vaporized=""/>
    <tripinfo id="0LUtoBE.0.4" depart="18.00" departLane="-30706#0_0" departPos="4.60" departSpeed="13.89" departDelay="6.00" arrival="401.00" arrivalLane="-31622#16_2" arrivalPos="305.81" arrivalSpeed="35.70" duration="383.00" routeLength="11318.23" waitingTime="0.00" waitingCount="0" stopTime="0.00" timeLoss="22.18" rerouteNo="0" devices="tripinfo_0LUtoBE.0.4" vType="passenger2a" speedFactor="1.03" vaporized=""/>
    <tripinfo id="0DEtoLU.0.1" depart="22.00" departLane="-31622#0_0" departPos="4.60" departSpeed="13.89" departDelay="7.00" arrival="401.00" arrivalLane="-32400#5_1" arrivalPos="257.03" arrivalSpeed="33.73" duration="379.00" routeLength="11354.22" waitingTime="0.00" waitingCount="0" stopTime="0.00" timeLoss="15.13" rerouteNo="0" devices="tripinfo_0DEtoLU.0.1" vType="passenger2a" speedFactor="0.97" vaporized=""/>
    <tripinfo id="0DEtoLU.1.1" depart="44.00" departLane="-31622#0_0" departPos="6.10" departSpeed="13.89" departDelay="1.00" arrival="402.00" arrivalLane="-32400#5_1" arrivalPos="257.03" arrivalSpeed="37.18" duration="358.00" routeLength="11352.72" waitingTime="0.00" waitingCount="0" stopTime="0.00" timeLoss="26.29" rerouteNo="0" devices="tripinfo_0DEtoLU.1.1" vType="passenger3" speedFactor="1.06" vaporized=""/>
    <tripinfo id="0DEtoLU.0.2" depart="24.00" departLane="-31622#0_0" departPos="4.60" departSpeed="13.89" departDelay="9.00" arrival="405.00" arrivalLane="-32400#5_1" arrivalPos="257.03" arrivalSpeed="34.31" duration="381.00" routeLength="11354.22" waitingTime="0.00" waitingCount="0" stopTime="0.00" timeLoss="17.22" rerouteNo="0" devices="tripinfo_0DEtoLU.0.2" vType="passenger2a" speedFactor="0.97" vaporized=""/>
    <tripinfo id="0FRtoBE.0.4" depart="102.00" departLane="-32426#0_0" departPos="4.60" departSpeed="13.89" departDelay="6.00" arrival="410.00" arrivalLane="-31622#16_2" arrivalPos="305.81" arrivalSpeed="40.12" duration="308.00" routeLength="9592.32" waitingTime="0.00" waitingCount="0" stopTime="0.00" timeLoss="47.41" rerouteNo="0" devices="tripinfo_0FRtoBE.0.4" vType="passenger2b" speedFactor="1.15" vaporized=""/>
    <tripinfo id="NBSKMS_Nightbus_0.2" depart="47.00" departLane="-32278#1_0" departPos="0.00" departSpeed="0.00" departDelay="8.00" arrival="415.00" arrivalLane="-32278#5_0" arrivalPos="841.44" arrivalSpeed="13.44" duration="368.00" routeLength="1905.19" waitingTime="124.00" waitingCount="5" stopTime="60.00" timeLoss="170.06" rerouteNo="0" devices="tripinfo_NBSKMS_Nightbus_0.2" vType="bus" speedFactor="0.99" vaporized=""/>
    <tripinfo id="0DEtoLU.0.4" depart="27.00" departLane="-31622#0_0" departPos="4.60" departSpeed="13.89" departDelay="12.00" arrival="422.00" arrivalLane="-32400#5_1" arrivalPos="257.03" arrivalSpeed="33.05" duration="395.00" routeLength="11354.22" waitingTime="0.00" waitingCount="0" stopTime="0.00" timeLoss="14.29" rerouteNo="0" devices="tripinfo_0DEtoLU.0.4" vType="passenger2a" speedFactor="0.93" vaporized=""/>
    <tripinfo id="NBSKMS_Nightbus_1.2" depart="47.00" departLane="--32278#5_0" departPos="0.00" departSpeed="0.00" departDelay="8.00" arrival="424.00" arrivalLane="--32278#1_0" arrivalPos="139.07" arrivalSpeed="11.23" duration="377.00" routeLength="1910.02" waitingTime="115.00" waitingCount="4" stopTime="60.00" timeLoss="163.81" rerouteNo="0" devices="tripinfo_NBSKMS_Nightbus_1.2" vType="bus" speedFactor="0.90" vaporized=""/>
    <tripinfo id="0FRtoBE.0.3" depart="100.00" departLane="-32426#0_0" departPos="4.60" departSpeed="13.89" departDelay="4.00" arrival="431.00" arrivalLane="-31622#16_2" arrivalPos="305.81" arrivalSpeed="35.75" duration="331.00" routeLength="9592.32" waitingTime="0.00" waitingCount="0" stopTime="0.00" timeLoss="30.28" rerouteNo="0" devices="tripinfo_0FRtoBE.0.3" vType="passenger2b" speedFactor="1.00" vaporized=""/>